TITLE = "viz/detector_position_ends"
VARIABLES = "X", "Y", "Z"
ZONE I=1, J=2, K=1, DATAPACKING=POINT
2890.7985729458837 5694.9358874363315 -2553.3931935720575
2493.9074610509983 6238.455860313339 1657.7516377080656
