TITLE = "viz/optics_position"
VARIABLES = "X", "Y", "Z"
ZONE I=1, J=150, K=1, DATAPACKING=POINT
2890.8372679398503 5694.932691041039 -2553.317195050456
2891.853344815441 5706.33678801579 -2526.54764718581
2892.8187851509015 5717.639996246324 -2499.7334143376615
2893.73358715676 5728.842129098902 -2472.8749521822433
2894.5977541777675 5739.943005295072 -2445.972711659714
2895.4112925386453 5750.942447102416 -2419.0271417892523
2896.174209389835 5761.840278525267 -2392.0386924841105
2896.8865107305114 5772.636323644561 -2365.007817134317
2897.5482004342066 5783.330405801323 -2337.9349738754318
2898.1592803397475 5793.922347676557 -2310.820625461189
2898.7197505821914 5804.411971573071 -2283.6652388215884
2899.229609923769 5814.799099697281 -2256.4692846209305
2899.688856085869 5825.083554441889 -2229.233236814454
2900.0974860878027 5835.265158674261 -2201.9575721960377
2900.455496593245 5845.3437360312555 -2174.6427699358132
2900.762884258586 5855.319111215657 -2147.2893111152207
2901.019646081272 5865.191110292575 -2119.8976782620452
2901.225779730406 5874.9595609708995 -2092.4683549086694
2901.3812837472433 5884.62429277524 -2065.001825320777
2901.4861575894233 5894.185137086343 -2037.4985744308237
2901.5404016311786 5903.641927144448 -2009.9590878291463
2901.544017163433 5912.994498052516 -1982.3838517551899
2901.497006393876 5922.24268677943 -1954.7733530887213
2901.3993724470206 5931.38633216316 -1927.1280793410274
2901.2511193642476 5940.425274913886 -1899.4485186460993
2901.0522521038274 5949.359357617096 -1871.735159751801
2900.8027765409215 5958.188424736638 -1843.988492011026
2900.5026994675763 5966.912322617737 -1816.2090053728377
2900.152028592687 5975.530899489988 -1788.3971903735976
2899.7507725419537 5984.0440054703 -1760.5535381280788
2899.298940857813 5992.451492565812 -1732.6785403205654
2898.796543999356 6000.75321467677 -1704.7726891959405
2898.243593342226 6008.949027599369 -1676.8364775507591
2897.6401011785 6017.038789028558 -1648.8703987243089
2896.986080716551 6025.022358560813 -1620.874946589658
2896.281546080893 6032.8995976968645 -1592.850615544691
2895.5265123120107 6040.6703698444035 -1564.7979005031307
2894.720995366167 6048.334540320733 -1536.7172968855496
2893.865012115194 6055.891976355402 -1508.609300610368
2892.9585803462696 6063.342547092785 -1480.474408084842
2892.0017187616722 6070.68612359464 -1452.313116196037
2890.9944469785196 6077.922578842618 -1424.125922301793
2889.9367855284877 6085.051787740747 -1395.9133242216765
2888.8287558575153 6092.073627117869 -1367.6758202279227
2887.6703803254886 6098.987975730044 -1339.4139090363658
2886.461682205906 6105.794714262919 -1311.1280897973595
2885.202685685531 6112.493725334059 -1282.818862086687
2883.8934158640186 6119.084893495237 -1254.48672589646
2882.533898753532 6125.568105234695 -1226.1321816260097
2881.124161278338 6131.943248979357 -1197.7557300727653
2879.6642312743825 6138.210215097014 -1169.3578724231252
2878.154137488853 6144.368895898464 -1140.9391102433171
2876.593909579717 6150.419185639626 -1112.4999454702509
2874.98357811525 6156.3609805235965 -1084.0408804023602
2873.3231745735393 6162.194178702695 -1055.5624176904382
2871.6127313419715 6167.918680280448 -1027.0650603284614
2869.8522817167063 6173.534387313545 -998.5493116444076
2868.041859902126 6179.04120381376 -970.015675291065
2866.18150101027 6184.439035749831 -941.4646552368336
2864.271241060256 6189.727791049301 -912.8967557565179
2862.3111169776744 6194.9073796003195 -884.3124814221138
2860.3011665939725 6199.977713253414 -855.7123370935866
2858.2414286458156 6204.938705823214 -827.0968279096433
2856.1319427744356 6209.790273090142 -798.4664592784962
2853.9727495249567 6214.532332802068 -769.8217368686229
2851.7638903457064 6219.164804675915 -741.1631665995158
2849.5054075875078 6223.68761039924 -712.4912546324294
2847.1973445029535 6228.100673631772 -683.8065073611191
2844.8397452456634 6232.403920006906 -655.1094314025743
2842.432654869523 6236.5972771331635 -626.4005335877476
2839.9761193279055 6240.6806745956155 -597.6803209522768
2837.4701854728733 6244.654043957263 -568.9493007272029
2834.914901054368 6248.517318760383 -540.2079803296823
2832.3103147193733 6252.270434527832 -511.4568673536954
2829.6564760110714 6255.913328764314 -482.6964695607494
2826.95343536797 6259.445940957612 -453.9272948705779
2824.2012441230227 6262.868212579764 -425.1498513518361
2821.399954502722 6266.180087088232 -396.3646472127915
2818.5496196261815 6269.381509927 -367.57219079201207
2815.650293504201 6272.472428527651 -338.7729905490502
2812.702031038305 6275.452792310401 -309.9675550551237
2809.7048880197754 6278.322552685095 -281.1563929837939
2806.658921128658 6281.0816630521595 -252.34001310164092
2803.5641879327572 6283.730078803523 -223.51892425893627
2800.420746886608 6286.2677573234905 -194.6936353803133
2797.228657330434 6288.694657989586 -165.86465545543552
2793.9879794890903 6291.010742173348 -137.0324935296628
2790.69877447098 6293.215973241095 -108.19765869471624
2787.3611042669636 6295.310316554642 -79.3606600793414
2783.9750317492444 6297.293739471984 -50.52200683997013
2780.5406206702396 6299.166211347945 -21.68220815138163
2777.0579356614335 6300.927703534774 7.158226802637611
2773.527042232211 6302.578189382714 35.9987888386342
2769.9480067686786 6304.117644240528 64.83896878282872
2766.320896532463 6305.546045455981 93.67825748045658
2762.645779659496 6306.863372376295 122.51614580510879
2758.922725158781 6308.069606348549 151.35212466807246
2755.1518029111403 6309.16473072005 180.18568502767053
2751.3330836679506 6310.148730838666 209.01631789860124
2747.4666390498537 6311.02159405311 237.84351436127594
2743.552541545458 6311.7833097131925 266.6667655711561
2739.590864510017 6312.433869170032 295.4855627680886
2735.581682164093 6312.973265776235 324.2993972856396
2731.525069592203 6313.401494886015 353.1077605604266
2727.4211027414526 6313.718553855292 381.9101441414487
2723.2698584201426 6313.924442041753 410.7060396994152
2719.0714142963707 6314.019160804855 439.49493903607123
2714.82584889661 6314.0027135058135 468.27633409352154
2710.5332416042693 6313.875105507527 497.04971696355057
2706.1936726582417 6313.636344174488 525.8145798969396
2701.807223151432 6313.28643887262 554.5704153127796
2697.373975029269 6312.825400969121 583.3167158077816
2692.894011088199 6312.253243832221 612.0529741655824
2688.3674149741673 6311.569982830935 640.7786833660463
2683.7942711810783 6310.775635334757 669.4933365945627
2679.174665049242 6309.870220713321 698.19642725134
2674.508682763801 6308.85376033603 726.8874489606935
2669.796411353147 6307.72627757163 755.5658955803303
2665.037938687312 6306.487797787758 784.2312612106268
2660.2333534763507 6305.138348350446 812.8830402039032
2655.3827452687037 6303.677958623588 841.5207271736907
2650.486204449544 6302.106659968361 870.143817003994
2645.5438222391067 6300.424485742617 898.7518048585473
2640.555690691004 6298.631471300233 927.3441861900651
2635.5219026905256 6296.72765399041 955.9204567494849
2630.442551952916 6294.713073156953 984.4801125952048
2625.3177330216454 6292.587770137497 1013.0226501023142
2620.1475412666555 6290.351788262698 1041.5475659718163
2614.9320728825965 6288.005172855393 1070.0543572398444
2609.671424887041 6285.547971229701 1098.5425212868713
2604.365695118692 6282.980232690114 1127.0115558469085
2599.014982235562 6280.302008530517 1155.4609590167015
2593.6193857131475 6277.513352033199 1183.8902292649125
2588.179005842583 6274.614318467805 1212.2988654412995
2582.693943728777 6271.604965090254 1240.6863667858822
2577.1643012885384 6268.485351141626 1269.0522329381033
2571.590181248682 6265.255537846999 1297.3959639459774
2565.9716871441187 6261.915588414257 1325.7170602752349
2560.3089233159353 6258.465568032855 1354.0150228184516
2554.601994909452 6254.905543872541 1382.2893529041723
2548.851007872269 6251.2355850820495 1410.5395523060242
2543.056068952296 6247.455762787748 1438.7651232518187
2537.2172856957663 6243.566150092252 1466.9655684326453
2531.3347664452367 6239.566822072993 1495.1403910119525
2525.4086203375705 6235.457855780758 1523.2890946346208
2519.438957301908 6231.2393302381815 1551.4111834360237
2513.4258880576176 6226.911326438209 1579.5061620510764
2507.369524112236 6222.473927342511 1607.5735356232765
2501.2699777593916 6217.927217879874 1635.6128098137294
2495.1273620767133 6213.271284944531 1663.6234908101662
