TITLE = "viz/optics_position_ends"
VARIABLES = "X", "Y", "Z"
ZONE I=1, J=2, K=1, DATAPACKING=POINT
2890.8372679398503 5694.932691041039 -2553.317195050456
2495.1273620767133 6213.271284944531 1663.6234908101662
